# vtk DataFile Version 3.0
vtk output
ASCII
DATASET POLYDATA
POINTS 360 double
3.421450151	3.421450151	0
0.842900302	0.842900302	0
6.842900302	0.842900302	0
0.842900302	6.842900302	0
6.842900302	6.842900302	0
11.10725076	3.421450151	0
8.528700906	0.842900302	0
14.52870091	0.842900302	0
8.528700906	6.842900302	0
14.52870091	6.842900302	0
18.79305136	3.421450151	0
16.21450151	0.842900302	0
22.21450151	0.842900302	0
16.21450151	6.842900302	0
22.21450151	6.842900302	0
26.47885196	3.421450151	0
23.90030211	0.842900302	0
29.90030211	0.842900302	0
23.90030211	6.842900302	0
29.90030211	6.842900302	0
34.16465257	3.421450151	0
31.58610272	0.842900302	0
37.58610272	0.842900302	0
31.58610272	6.842900302	0
37.58610272	6.842900302	0
41.85045317	3.421450151	0
39.27190332	0.842900302	0
45.27190332	0.842900302	0
39.27190332	6.842900302	0
45.27190332	6.842900302	0
49.53625378	3.421450151	0
46.95770393	0.842900302	0
52.95770393	0.842900302	0
46.95770393	6.842900302	0
52.95770393	6.842900302	0
57.22205438	3.421450151	0
54.64350453	0.842900302	0
60.64350453	0.842900302	0
54.64350453	6.842900302	0
60.64350453	6.842900302	0
64.90785498	3.421450151	0
62.32930514	0.842900302	0
68.32930514	0.842900302	0
62.32930514	6.842900302	0
68.32930514	6.842900302	0
3.421450151	11.10725076	0
0.842900302	8.528700906	0
6.842900302	8.528700906	0
0.842900302	14.52870091	0
6.842900302	14.52870091	0
11.10725076	11.10725076	0
8.528700906	8.528700906	0
14.52870091	8.528700906	0
8.528700906	14.52870091	0
14.52870091	14.52870091	0
18.79305136	11.10725076	0
16.21450151	8.528700906	0
22.21450151	8.528700906	0
16.21450151	14.52870091	0
22.21450151	14.52870091	0
26.47885196	11.10725076	0
23.90030211	8.528700906	0
29.90030211	8.528700906	0
23.90030211	14.52870091	0
29.90030211	14.52870091	0
34.16465257	11.10725076	0
31.58610272	8.528700906	0
37.58610272	8.528700906	0
31.58610272	14.52870091	0
37.58610272	14.52870091	0
41.85045317	11.10725076	0
39.27190332	8.528700906	0
45.27190332	8.528700906	0
39.27190332	14.52870091	0
45.27190332	14.52870091	0
49.53625378	11.10725076	0
46.95770393	8.528700906	0
52.95770393	8.528700906	0
46.95770393	14.52870091	0
52.95770393	14.52870091	0
57.22205438	11.10725076	0
54.64350453	8.528700906	0
60.64350453	8.528700906	0
54.64350453	14.52870091	0
60.64350453	14.52870091	0
64.90785498	11.10725076	0
62.32930514	8.528700906	0
68.32930514	8.528700906	0
62.32930514	14.52870091	0
68.32930514	14.52870091	0
3.421450151	18.79305136	0
0.842900302	16.21450151	0
6.842900302	16.21450151	0
0.842900302	22.21450151	0
6.842900302	22.21450151	0
11.10725076	18.79305136	0
8.528700906	16.21450151	0
14.52870091	16.21450151	0
8.528700906	22.21450151	0
14.52870091	22.21450151	0
18.79305136	18.79305136	0
16.21450151	16.21450151	0
22.21450151	16.21450151	0
16.21450151	22.21450151	0
22.21450151	22.21450151	0
26.47885196	18.79305136	0
23.90030211	16.21450151	0
29.90030211	16.21450151	0
23.90030211	22.21450151	0
29.90030211	22.21450151	0
34.16465257	18.79305136	0
31.58610272	16.21450151	0
37.58610272	16.21450151	0
31.58610272	22.21450151	0
37.58610272	22.21450151	0
41.85045317	18.79305136	0
39.27190332	16.21450151	0
45.27190332	16.21450151	0
39.27190332	22.21450151	0
45.27190332	22.21450151	0
49.53625378	18.79305136	0
46.95770393	16.21450151	0
52.95770393	16.21450151	0
46.95770393	22.21450151	0
52.95770393	22.21450151	0
57.22205438	18.79305136	0
54.64350453	16.21450151	0
60.64350453	16.21450151	0
54.64350453	22.21450151	0
60.64350453	22.21450151	0
64.90785498	18.79305136	0
62.32930514	16.21450151	0
68.32930514	16.21450151	0
62.32930514	22.21450151	0
68.32930514	22.21450151	0
3.421450151	26.47885196	0
0.842900302	23.90030211	0
6.842900302	23.90030211	0
0.842900302	29.90030211	0
6.842900302	29.90030211	0
11.10725076	26.47885196	0
8.528700906	23.90030211	0
14.52870091	23.90030211	0
8.528700906	29.90030211	0
14.52870091	29.90030211	0
18.79305136	26.47885196	0
16.21450151	23.90030211	0
22.21450151	23.90030211	0
16.21450151	29.90030211	0
22.21450151	29.90030211	0
26.47885196	26.47885196	0
23.90030211	23.90030211	0
29.90030211	23.90030211	0
23.90030211	29.90030211	0
29.90030211	29.90030211	0
34.16465257	26.47885196	0
31.58610272	23.90030211	0
37.58610272	23.90030211	0
31.58610272	29.90030211	0
37.58610272	29.90030211	0
41.85045317	26.47885196	0
39.27190332	23.90030211	0
45.27190332	23.90030211	0
39.27190332	29.90030211	0
45.27190332	29.90030211	0
49.53625378	26.47885196	0
46.95770393	23.90030211	0
52.95770393	23.90030211	0
46.95770393	29.90030211	0
52.95770393	29.90030211	0
57.22205438	26.47885196	0
54.64350453	23.90030211	0
60.64350453	23.90030211	0
54.64350453	29.90030211	0
60.64350453	29.90030211	0
64.90785498	26.47885196	0
62.32930514	23.90030211	0
68.32930514	23.90030211	0
62.32930514	29.90030211	0
68.32930514	29.90030211	0
3.421450151	34.16465257	0
0.842900302	31.58610272	0
6.842900302	31.58610272	0
0.842900302	37.58610272	0
6.842900302	37.58610272	0
11.10725076	34.16465257	0
8.528700906	31.58610272	0
14.52870091	31.58610272	0
8.528700906	37.58610272	0
14.52870091	37.58610272	0
18.79305136	34.16465257	0
16.21450151	31.58610272	0
22.21450151	31.58610272	0
16.21450151	37.58610272	0
22.21450151	37.58610272	0
26.47885196	34.16465257	0
23.90030211	31.58610272	0
29.90030211	31.58610272	0
23.90030211	37.58610272	0
29.90030211	37.58610272	0
34.16465257	34.16465257	0
31.58610272	31.58610272	0
37.58610272	31.58610272	0
31.58610272	37.58610272	0
37.58610272	37.58610272	0
41.85045317	34.16465257	0
39.27190332	31.58610272	0
45.27190332	31.58610272	0
39.27190332	37.58610272	0
45.27190332	37.58610272	0
49.53625378	34.16465257	0
46.95770393	31.58610272	0
52.95770393	31.58610272	0
46.95770393	37.58610272	0
52.95770393	37.58610272	0
57.22205438	34.16465257	0
54.64350453	31.58610272	0
60.64350453	31.58610272	0
54.64350453	37.58610272	0
60.64350453	37.58610272	0
64.90785498	34.16465257	0
62.32930514	31.58610272	0
68.32930514	31.58610272	0
62.32930514	37.58610272	0
68.32930514	37.58610272	0
3.421450151	41.85045317	0
0.842900302	39.27190332	0
6.842900302	39.27190332	0
0.842900302	45.27190332	0
6.842900302	45.27190332	0
11.10725076	41.85045317	0
8.528700906	39.27190332	0
14.52870091	39.27190332	0
8.528700906	45.27190332	0
14.52870091	45.27190332	0
18.79305136	41.85045317	0
16.21450151	39.27190332	0
22.21450151	39.27190332	0
16.21450151	45.27190332	0
22.21450151	45.27190332	0
26.47885196	41.85045317	0
23.90030211	39.27190332	0
29.90030211	39.27190332	0
23.90030211	45.27190332	0
29.90030211	45.27190332	0
34.16465257	41.85045317	0
31.58610272	39.27190332	0
37.58610272	39.27190332	0
31.58610272	45.27190332	0
37.58610272	45.27190332	0
41.85045317	41.85045317	0
39.27190332	39.27190332	0
45.27190332	39.27190332	0
39.27190332	45.27190332	0
45.27190332	45.27190332	0
49.53625378	41.85045317	0
46.95770393	39.27190332	0
52.95770393	39.27190332	0
46.95770393	45.27190332	0
52.95770393	45.27190332	0
57.22205438	41.85045317	0
54.64350453	39.27190332	0
60.64350453	39.27190332	0
54.64350453	45.27190332	0
60.64350453	45.27190332	0
64.90785498	41.85045317	0
62.32930514	39.27190332	0
68.32930514	39.27190332	0
62.32930514	45.27190332	0
68.32930514	45.27190332	0
3.421450151	49.53625378	0
0.842900302	46.95770393	0
6.842900302	46.95770393	0
0.842900302	52.95770393	0
6.842900302	52.95770393	0
11.10725076	49.53625378	0
8.528700906	46.95770393	0
14.52870091	46.95770393	0
8.528700906	52.95770393	0
14.52870091	52.95770393	0
18.79305136	49.53625378	0
16.21450151	46.95770393	0
22.21450151	46.95770393	0
16.21450151	52.95770393	0
22.21450151	52.95770393	0
26.47885196	49.53625378	0
23.90030211	46.95770393	0
29.90030211	46.95770393	0
23.90030211	52.95770393	0
29.90030211	52.95770393	0
34.16465257	49.53625378	0
31.58610272	46.95770393	0
37.58610272	46.95770393	0
31.58610272	52.95770393	0
37.58610272	52.95770393	0
41.85045317	49.53625378	0
39.27190332	46.95770393	0
45.27190332	46.95770393	0
39.27190332	52.95770393	0
45.27190332	52.95770393	0
49.53625378	49.53625378	0
46.95770393	46.95770393	0
52.95770393	46.95770393	0
46.95770393	52.95770393	0
52.95770393	52.95770393	0
57.22205438	49.53625378	0
54.64350453	46.95770393	0
60.64350453	46.95770393	0
54.64350453	52.95770393	0
60.64350453	52.95770393	0
64.90785498	49.53625378	0
62.32930514	46.95770393	0
68.32930514	46.95770393	0
62.32930514	52.95770393	0
68.32930514	52.95770393	0
3.421450151	57.22205438	0
0.842900302	54.64350453	0
6.842900302	54.64350453	0
0.842900302	60.64350453	0
6.842900302	60.64350453	0
11.10725076	57.22205438	0
8.528700906	54.64350453	0
14.52870091	54.64350453	0
8.528700906	60.64350453	0
14.52870091	60.64350453	0
18.79305136	57.22205438	0
16.21450151	54.64350453	0
22.21450151	54.64350453	0
16.21450151	60.64350453	0
22.21450151	60.64350453	0
26.47885196	57.22205438	0
23.90030211	54.64350453	0
29.90030211	54.64350453	0
23.90030211	60.64350453	0
29.90030211	60.64350453	0
34.16465257	57.22205438	0
31.58610272	54.64350453	0
37.58610272	54.64350453	0
31.58610272	60.64350453	0
37.58610272	60.64350453	0
41.85045317	57.22205438	0
39.27190332	54.64350453	0
45.27190332	54.64350453	0
39.27190332	60.64350453	0
45.27190332	60.64350453	0
49.53625378	57.22205438	0
46.95770393	54.64350453	0
52.95770393	54.64350453	0
46.95770393	60.64350453	0
52.95770393	60.64350453	0
57.22205438	57.22205438	0
54.64350453	54.64350453	0
60.64350453	54.64350453	0
54.64350453	60.64350453	0
60.64350453	60.64350453	0
64.90785498	57.22205438	0
62.32930514	54.64350453	0
68.32930514	54.64350453	0
62.32930514	60.64350453	0
68.32930514	60.64350453	0
VERTICES 360 720
1	0
1	1
1	2
1	3
1	4
1	5
1	6
1	7
1	8
1	9
1	10
1	11
1	12
1	13
1	14
1	15
1	16
1	17
1	18
1	19
1	20
1	21
1	22
1	23
1	24
1	25
1	26
1	27
1	28
1	29
1	30
1	31
1	32
1	33
1	34
1	35
1	36
1	37
1	38
1	39
1	40
1	41
1	42
1	43
1	44
1	45
1	46
1	47
1	48
1	49
1	50
1	51
1	52
1	53
1	54
1	55
1	56
1	57
1	58
1	59
1	60
1	61
1	62
1	63
1	64
1	65
1	66
1	67
1	68
1	69
1	70
1	71
1	72
1	73
1	74
1	75
1	76
1	77
1	78
1	79
1	80
1	81
1	82
1	83
1	84
1	85
1	86
1	87
1	88
1	89
1	90
1	91
1	92
1	93
1	94
1	95
1	96
1	97
1	98
1	99
1	100
1	101
1	102
1	103
1	104
1	105
1	106
1	107
1	108
1	109
1	110
1	111
1	112
1	113
1	114
1	115
1	116
1	117
1	118
1	119
1	120
1	121
1	122
1	123
1	124
1	125
1	126
1	127
1	128
1	129
1	130
1	131
1	132
1	133
1	134
1	135
1	136
1	137
1	138
1	139
1	140
1	141
1	142
1	143
1	144
1	145
1	146
1	147
1	148
1	149
1	150
1	151
1	152
1	153
1	154
1	155
1	156
1	157
1	158
1	159
1	160
1	161
1	162
1	163
1	164
1	165
1	166
1	167
1	168
1	169
1	170
1	171
1	172
1	173
1	174
1	175
1	176
1	177
1	178
1	179
1	180
1	181
1	182
1	183
1	184
1	185
1	186
1	187
1	188
1	189
1	190
1	191
1	192
1	193
1	194
1	195
1	196
1	197
1	198
1	199
1	200
1	201
1	202
1	203
1	204
1	205
1	206
1	207
1	208
1	209
1	210
1	211
1	212
1	213
1	214
1	215
1	216
1	217
1	218
1	219
1	220
1	221
1	222
1	223
1	224
1	225
1	226
1	227
1	228
1	229
1	230
1	231
1	232
1	233
1	234
1	235
1	236
1	237
1	238
1	239
1	240
1	241
1	242
1	243
1	244
1	245
1	246
1	247
1	248
1	249
1	250
1	251
1	252
1	253
1	254
1	255
1	256
1	257
1	258
1	259
1	260
1	261
1	262
1	263
1	264
1	265
1	266
1	267
1	268
1	269
1	270
1	271
1	272
1	273
1	274
1	275
1	276
1	277
1	278
1	279
1	280
1	281
1	282
1	283
1	284
1	285
1	286
1	287
1	288
1	289
1	290
1	291
1	292
1	293
1	294
1	295
1	296
1	297
1	298
1	299
1	300
1	301
1	302
1	303
1	304
1	305
1	306
1	307
1	308
1	309
1	310
1	311
1	312
1	313
1	314
1	315
1	316
1	317
1	318
1	319
1	320
1	321
1	322
1	323
1	324
1	325
1	326
1	327
1	328
1	329
1	330
1	331
1	332
1	333
1	334
1	335
1	336
1	337
1	338
1	339
1	340
1	341
1	342
1	343
1	344
1	345
1	346
1	347
1	348
1	349
1	350
1	351
1	352
1	353
1	354
1	355
1	356
1	357
1	358
1	359
POINT_DATA 360
SCALARS Point%20IDs int
LOOKUP_TABLE default
0
1000
2000
4000
3000
1
1001
2001
4001
3001
2
1002
2002
4002
3002
3
1003
2003
4003
3003
4
1004
2004
4004
3004
5
1005
2005
4005
3005
6
1006
2006
4006
3006
7
1007
2007
4007
3007
8
1008
2008
4008
3008
9
1009
2009
4009
3009
10
1010
2010
4010
3010
11
1011
2011
4011
3011
12
1012
2012
4012
3012
13
1013
2013
4013
3013
14
1014
2014
4014
3014
15
1015
2015
4015
3015
16
1016
2016
4016
3016
17
1017
2017
4017
3017
18
1018
2018
4018
3018
19
1019
2019
4019
3019
20
1020
2020
4020
3020
21
1021
2021
4021
3021
22
1022
2022
4022
3022
23
1023
2023
4023
3023
24
1024
2024
4024
3024
25
1025
2025
4025
3025
26
1026
2026
4026
3026
27
1027
2027
4027
3027
28
1028
2028
4028
3028
29
1029
2029
4029
3029
30
1030
2030
4030
3030
31
1031
2031
4031
3031
32
1032
2032
4032
3032
33
1033
2033
4033
3033
34
1034
2034
4034
3034
35
1035
2035
4035
3035
36
1036
2036
4036
3036
37
1037
2037
4037
3037
38
1038
2038
4038
3038
39
1039
2039
4039
3039
40
1040
2040
4040
3040
41
1041
2041
4041
3041
42
1042
2042
4042
3042
43
1043
2043
4043
3043
44
1044
2044
4044
3044
45
1045
2045
4045
3045
46
1046
2046
4046
3046
47
1047
2047
4047
3047
48
1048
2048
4048
3048
49
1049
2049
4049
3049
50
1050
2050
4050
3050
51
1051
2051
4051
3051
52
1052
2052
4052
3052
53
1053
2053
4053
3053
54
1054
2054
4054
3054
55
1055
2055
4055
3055
56
1056
2056
4056
3056
57
1057
2057
4057
3057
58
1058
2058
4058
3058
59
1059
2059
4059
3059
60
1060
2060
4060
3060
61
1061
2061
4061
3061
62
1062
2062
4062
3062
63
1063
2063
4063
3063
64
1064
2064
4064
3064
65
1065
2065
4065
3065
66
1066
2066
4066
3066
67
1067
2067
4067
3067
68
1068
2068
4068
3068
69
1069
2069
4069
3069
70
1070
2070
4070
3070
71
1071
2071
4071
3071
NORMALS Normals double
0	0	-1
0	0	-1
0	0	-1
0	0	-1
0	0	-1
0	0	-1
0	0	-1
0	0	-1
0	0	-1
0	0	-1
0	0	-1
0	0	-1
0	0	-1
0	0	-1
0	0	-1
0	0	-1
0	0	-1
0	0	-1
0	0	-1
0	0	-1
0	0	-1
0	0	-1
0	0	-1
0	0	-1
0	0	-1
0	0	-1
0	0	-1
0	0	-1
0	0	-1
0	0	-1
0	0	-1
0	0	-1
0	0	-1
0	0	-1
0	0	-1
0	0	-1
0	0	-1
0	0	-1
0	0	-1
0	0	-1
0	0	-1
0	0	-1
0	0	-1
0	0	-1
0	0	-1
0	0	-1
0	0	-1
0	0	-1
0	0	-1
0	0	-1
0	0	-1
0	0	-1
0	0	-1
0	0	-1
0	0	-1
0	0	-1
0	0	-1
0	0	-1
0	0	-1
0	0	-1
0	0	-1
0	0	-1
0	0	-1
0	0	-1
0	0	-1
0	0	-1
0	0	-1
0	0	-1
0	0	-1
0	0	-1
0	0	-1
0	0	-1
0	0	-1
0	0	-1
0	0	-1
0	0	-1
0	0	-1
0	0	-1
0	0	-1
0	0	-1
0	0	-1
0	0	-1
0	0	-1
0	0	-1
0	0	-1
0	0	-1
0	0	-1
0	0	-1
0	0	-1
0	0	-1
0	0	-1
0	0	-1
0	0	-1
0	0	-1
0	0	-1
0	0	-1
0	0	-1
0	0	-1
0	0	-1
0	0	-1
0	0	-1
0	0	-1
0	0	-1
0	0	-1
0	0	-1
0	0	-1
0	0	-1
0	0	-1
0	0	-1
0	0	-1
0	0	-1
0	0	-1
0	0	-1
0	0	-1
0	0	-1
0	0	-1
0	0	-1
0	0	-1
0	0	-1
0	0	-1
0	0	-1
0	0	-1
0	0	-1
0	0	-1
0	0	-1
0	0	-1
0	0	-1
0	0	-1
0	0	-1
0	0	-1
0	0	-1
0	0	-1
0	0	-1
0	0	-1
0	0	-1
0	0	-1
0	0	-1
0	0	-1
0	0	-1
0	0	-1
0	0	-1
0	0	-1
0	0	-1
0	0	-1
0	0	-1
0	0	-1
0	0	-1
0	0	-1
0	0	-1
0	0	-1
0	0	-1
0	0	-1
0	0	-1
0	0	-1
0	0	-1
0	0	-1
0	0	-1
0	0	-1
0	0	-1
0	0	-1
0	0	-1
0	0	-1
0	0	-1
0	0	-1
0	0	-1
0	0	-1
0	0	-1
0	0	-1
0	0	-1
0	0	-1
0	0	-1
0	0	-1
0	0	-1
0	0	-1
0	0	-1
0	0	-1
0	0	-1
0	0	-1
0	0	-1
0	0	-1
0	0	-1
0	0	-1
0	0	-1
0	0	-1
0	0	-1
0	0	-1
0	0	-1
0	0	-1
0	0	-1
0	0	-1
0	0	-1
0	0	-1
0	0	-1
0	0	-1
0	0	-1
0	0	-1
0	0	-1
0	0	-1
0	0	-1
0	0	-1
0	0	-1
0	0	-1
0	0	-1
0	0	-1
0	0	-1
0	0	-1
0	0	-1
0	0	-1
0	0	-1
0	0	-1
0	0	-1
0	0	-1
0	0	-1
0	0	-1
0	0	-1
0	0	-1
0	0	-1
0	0	-1
0	0	-1
0	0	-1
0	0	-1
0	0	-1
0	0	-1
0	0	-1
0	0	-1
0	0	-1
0	0	-1
0	0	-1
0	0	-1
0	0	-1
0	0	-1
0	0	-1
0	0	-1
0	0	-1
0	0	-1
0	0	-1
0	0	-1
0	0	-1
0	0	-1
0	0	-1
0	0	-1
0	0	-1
0	0	-1
0	0	-1
0	0	-1
0	0	-1
0	0	-1
0	0	-1
0	0	-1
0	0	-1
0	0	-1
0	0	-1
0	0	-1
0	0	-1
0	0	-1
0	0	-1
0	0	-1
0	0	-1
0	0	-1
0	0	-1
0	0	-1
0	0	-1
0	0	-1
0	0	-1
0	0	-1
0	0	-1
0	0	-1
0	0	-1
0	0	-1
0	0	-1
0	0	-1
0	0	-1
0	0	-1
0	0	-1
0	0	-1
0	0	-1
0	0	-1
0	0	-1
0	0	-1
0	0	-1
0	0	-1
0	0	-1
0	0	-1
0	0	-1
0	0	-1
0	0	-1
0	0	-1
0	0	-1
0	0	-1
0	0	-1
0	0	-1
0	0	-1
0	0	-1
0	0	-1
0	0	-1
0	0	-1
0	0	-1
0	0	-1
0	0	-1
0	0	-1
0	0	-1
0	0	-1
0	0	-1
0	0	-1
0	0	-1
0	0	-1
0	0	-1
0	0	-1
0	0	-1
0	0	-1
0	0	-1
0	0	-1
0	0	-1
0	0	-1
0	0	-1
0	0	-1
0	0	-1
0	0	-1
0	0	-1
0	0	-1
0	0	-1
0	0	-1
0	0	-1
0	0	-1
0	0	-1
0	0	-1
0	0	-1
0	0	-1
0	0	-1
0	0	-1
0	0	-1
0	0	-1
0	0	-1
0	0	-1
0	0	-1
0	0	-1
0	0	-1
0	0	-1
0	0	-1
0	0	-1
0	0	-1
0	0	-1
0	0	-1
0	0	-1
0	0	-1
0	0	-1
0	0	-1
0	0	-1
0	0	-1
0	0	-1
0	0	-1
0	0	-1
0	0	-1
0	0	-1
0	0	-1
0	0	-1
0	0	-1
0	0	-1
0	0	-1
0	0	-1
