# vtk DataFile Version 3.0
vtk output
ASCII
DATASET POLYDATA
POINTS 360 double
3.842900302	3.842900302	0
11.52870091	3.842900302	0
19.21450151	3.842900302	0
26.90030211	3.842900302	0
34.58610272	3.842900302	0
42.27190332	3.842900302	0
49.95770393	3.842900302	0
57.64350453	3.842900302	0
65.32930514	3.842900302	0
3.842900302	11.52870091	0
11.52870091	11.52870091	0
19.21450151	11.52870091	0
26.90030211	11.52870091	0
34.58610272	11.52870091	0
42.27190332	11.52870091	0
49.95770393	11.52870091	0
57.64350453	11.52870091	0
65.32930514	11.52870091	0
3.842900302	19.21450151	0
11.52870091	19.21450151	0
19.21450151	19.21450151	0
26.90030211	19.21450151	0
34.58610272	19.21450151	0
42.27190332	19.21450151	0
49.95770393	19.21450151	0
57.64350453	19.21450151	0
65.32930514	19.21450151	0
3.842900302	26.90030211	0
11.52870091	26.90030211	0
19.21450151	26.90030211	0
26.90030211	26.90030211	0
34.58610272	26.90030211	0
42.27190332	26.90030211	0
49.95770393	26.90030211	0
57.64350453	26.90030211	0
65.32930514	26.90030211	0
3.842900302	34.58610272	0
11.52870091	34.58610272	0
19.21450151	34.58610272	0
26.90030211	34.58610272	0
34.58610272	34.58610272	0
42.27190332	34.58610272	0
49.95770393	34.58610272	0
57.64350453	34.58610272	0
65.32930514	34.58610272	0
3.842900302	42.27190332	0
11.52870091	42.27190332	0
19.21450151	42.27190332	0
26.90030211	42.27190332	0
34.58610272	42.27190332	0
42.27190332	42.27190332	0
49.95770393	42.27190332	0
57.64350453	42.27190332	0
65.32930514	42.27190332	0
3.842900302	49.95770393	0
11.52870091	49.95770393	0
19.21450151	49.95770393	0
26.90030211	49.95770393	0
34.58610272	49.95770393	0
42.27190332	49.95770393	0
49.95770393	49.95770393	0
57.64350453	49.95770393	0
65.32930514	49.95770393	0
3.842900302	57.64350453	0
11.52870091	57.64350453	0
19.21450151	57.64350453	0
26.90030211	57.64350453	0
34.58610272	57.64350453	0
42.27190332	57.64350453	0
49.95770393	57.64350453	0
57.64350453	57.64350453	0
65.32930514	57.64350453	0
0.842900302	0.842900302	0
8.528700906	0.842900302	0
16.21450151	0.842900302	0
23.90030211	0.842900302	0
31.58610272	0.842900302	0
39.27190332	0.842900302	0
46.95770393	0.842900302	0
54.64350453	0.842900302	0
62.32930514	0.842900302	0
0.842900302	8.528700906	0
8.528700906	8.528700906	0
16.21450151	8.528700906	0
23.90030211	8.528700906	0
31.58610272	8.528700906	0
39.27190332	8.528700906	0
46.95770393	8.528700906	0
54.64350453	8.528700906	0
62.32930514	8.528700906	0
0.842900302	16.21450151	0
8.528700906	16.21450151	0
16.21450151	16.21450151	0
23.90030211	16.21450151	0
31.58610272	16.21450151	0
39.27190332	16.21450151	0
46.95770393	16.21450151	0
54.64350453	16.21450151	0
62.32930514	16.21450151	0
0.842900302	23.90030211	0
8.528700906	23.90030211	0
16.21450151	23.90030211	0
23.90030211	23.90030211	0
31.58610272	23.90030211	0
39.27190332	23.90030211	0
46.95770393	23.90030211	0
54.64350453	23.90030211	0
62.32930514	23.90030211	0
0.842900302	31.58610272	0
8.528700906	31.58610272	0
16.21450151	31.58610272	0
23.90030211	31.58610272	0
31.58610272	31.58610272	0
39.27190332	31.58610272	0
46.95770393	31.58610272	0
54.64350453	31.58610272	0
62.32930514	31.58610272	0
0.842900302	39.27190332	0
8.528700906	39.27190332	0
16.21450151	39.27190332	0
23.90030211	39.27190332	0
31.58610272	39.27190332	0
39.27190332	39.27190332	0
46.95770393	39.27190332	0
54.64350453	39.27190332	0
62.32930514	39.27190332	0
0.842900302	46.95770393	0
8.528700906	46.95770393	0
16.21450151	46.95770393	0
23.90030211	46.95770393	0
31.58610272	46.95770393	0
39.27190332	46.95770393	0
46.95770393	46.95770393	0
54.64350453	46.95770393	0
62.32930514	46.95770393	0
0.842900302	54.64350453	0
8.528700906	54.64350453	0
16.21450151	54.64350453	0
23.90030211	54.64350453	0
31.58610272	54.64350453	0
39.27190332	54.64350453	0
46.95770393	54.64350453	0
54.64350453	54.64350453	0
62.32930514	54.64350453	0
6.842900302	0.842900302	0
14.52870091	0.842900302	0
22.21450151	0.842900302	0
29.90030211	0.842900302	0
37.58610272	0.842900302	0
45.27190332	0.842900302	0
52.95770393	0.842900302	0
60.64350453	0.842900302	0
68.32930514	0.842900302	0
6.842900302	8.528700906	0
14.52870091	8.528700906	0
22.21450151	8.528700906	0
29.90030211	8.528700906	0
37.58610272	8.528700906	0
45.27190332	8.528700906	0
52.95770393	8.528700906	0
60.64350453	8.528700906	0
68.32930514	8.528700906	0
6.842900302	16.21450151	0
14.52870091	16.21450151	0
22.21450151	16.21450151	0
29.90030211	16.21450151	0
37.58610272	16.21450151	0
45.27190332	16.21450151	0
52.95770393	16.21450151	0
60.64350453	16.21450151	0
68.32930514	16.21450151	0
6.842900302	23.90030211	0
14.52870091	23.90030211	0
22.21450151	23.90030211	0
29.90030211	23.90030211	0
37.58610272	23.90030211	0
45.27190332	23.90030211	0
52.95770393	23.90030211	0
60.64350453	23.90030211	0
68.32930514	23.90030211	0
6.842900302	31.58610272	0
14.52870091	31.58610272	0
22.21450151	31.58610272	0
29.90030211	31.58610272	0
37.58610272	31.58610272	0
45.27190332	31.58610272	0
52.95770393	31.58610272	0
60.64350453	31.58610272	0
68.32930514	31.58610272	0
6.842900302	39.27190332	0
14.52870091	39.27190332	0
22.21450151	39.27190332	0
29.90030211	39.27190332	0
37.58610272	39.27190332	0
45.27190332	39.27190332	0
52.95770393	39.27190332	0
60.64350453	39.27190332	0
68.32930514	39.27190332	0
6.842900302	46.95770393	0
14.52870091	46.95770393	0
22.21450151	46.95770393	0
29.90030211	46.95770393	0
37.58610272	46.95770393	0
45.27190332	46.95770393	0
52.95770393	46.95770393	0
60.64350453	46.95770393	0
68.32930514	46.95770393	0
6.842900302	54.64350453	0
14.52870091	54.64350453	0
22.21450151	54.64350453	0
29.90030211	54.64350453	0
37.58610272	54.64350453	0
45.27190332	54.64350453	0
52.95770393	54.64350453	0
60.64350453	54.64350453	0
68.32930514	54.64350453	0
6.842900302	6.842900302	0
14.52870091	6.842900302	0
22.21450151	6.842900302	0
29.90030211	6.842900302	0
37.58610272	6.842900302	0
45.27190332	6.842900302	0
52.95770393	6.842900302	0
60.64350453	6.842900302	0
68.32930514	6.842900302	0
6.842900302	14.52870091	0
14.52870091	14.52870091	0
22.21450151	14.52870091	0
29.90030211	14.52870091	0
37.58610272	14.52870091	0
45.27190332	14.52870091	0
52.95770393	14.52870091	0
60.64350453	14.52870091	0
68.32930514	14.52870091	0
6.842900302	22.21450151	0
14.52870091	22.21450151	0
22.21450151	22.21450151	0
29.90030211	22.21450151	0
37.58610272	22.21450151	0
45.27190332	22.21450151	0
52.95770393	22.21450151	0
60.64350453	22.21450151	0
68.32930514	22.21450151	0
6.842900302	29.90030211	0
14.52870091	29.90030211	0
22.21450151	29.90030211	0
29.90030211	29.90030211	0
37.58610272	29.90030211	0
45.27190332	29.90030211	0
52.95770393	29.90030211	0
60.64350453	29.90030211	0
68.32930514	29.90030211	0
6.842900302	37.58610272	0
14.52870091	37.58610272	0
22.21450151	37.58610272	0
29.90030211	37.58610272	0
37.58610272	37.58610272	0
45.27190332	37.58610272	0
52.95770393	37.58610272	0
60.64350453	37.58610272	0
68.32930514	37.58610272	0
6.842900302	45.27190332	0
14.52870091	45.27190332	0
22.21450151	45.27190332	0
29.90030211	45.27190332	0
37.58610272	45.27190332	0
45.27190332	45.27190332	0
52.95770393	45.27190332	0
60.64350453	45.27190332	0
68.32930514	45.27190332	0
6.842900302	52.95770393	0
14.52870091	52.95770393	0
22.21450151	52.95770393	0
29.90030211	52.95770393	0
37.58610272	52.95770393	0
45.27190332	52.95770393	0
52.95770393	52.95770393	0
60.64350453	52.95770393	0
68.32930514	52.95770393	0
6.842900302	60.64350453	0
14.52870091	60.64350453	0
22.21450151	60.64350453	0
29.90030211	60.64350453	0
37.58610272	60.64350453	0
45.27190332	60.64350453	0
52.95770393	60.64350453	0
60.64350453	60.64350453	0
68.32930514	60.64350453	0
0.842900302	6.842900302	0
8.528700906	6.842900302	0
16.21450151	6.842900302	0
23.90030211	6.842900302	0
31.58610272	6.842900302	0
39.27190332	6.842900302	0
46.95770393	6.842900302	0
54.64350453	6.842900302	0
62.32930514	6.842900302	0
0.842900302	14.52870091	0
8.528700906	14.52870091	0
16.21450151	14.52870091	0
23.90030211	14.52870091	0
31.58610272	14.52870091	0
39.27190332	14.52870091	0
46.95770393	14.52870091	0
54.64350453	14.52870091	0
62.32930514	14.52870091	0
0.842900302	22.21450151	0
8.528700906	22.21450151	0
16.21450151	22.21450151	0
23.90030211	22.21450151	0
31.58610272	22.21450151	0
39.27190332	22.21450151	0
46.95770393	22.21450151	0
54.64350453	22.21450151	0
62.32930514	22.21450151	0
0.842900302	29.90030211	0
8.528700906	29.90030211	0
16.21450151	29.90030211	0
23.90030211	29.90030211	0
31.58610272	29.90030211	0
39.27190332	29.90030211	0
46.95770393	29.90030211	0
54.64350453	29.90030211	0
62.32930514	29.90030211	0
0.842900302	37.58610272	0
8.528700906	37.58610272	0
16.21450151	37.58610272	0
23.90030211	37.58610272	0
31.58610272	37.58610272	0
39.27190332	37.58610272	0
46.95770393	37.58610272	0
54.64350453	37.58610272	0
62.32930514	37.58610272	0
0.842900302	45.27190332	0
8.528700906	45.27190332	0
16.21450151	45.27190332	0
23.90030211	45.27190332	0
31.58610272	45.27190332	0
39.27190332	45.27190332	0
46.95770393	45.27190332	0
54.64350453	45.27190332	0
62.32930514	45.27190332	0
0.842900302	52.95770393	0
8.528700906	52.95770393	0
16.21450151	52.95770393	0
23.90030211	52.95770393	0
31.58610272	52.95770393	0
39.27190332	52.95770393	0
46.95770393	52.95770393	0
54.64350453	52.95770393	0
62.32930514	52.95770393	0
0.842900302	60.64350453	0
8.528700906	60.64350453	0
16.21450151	60.64350453	0
23.90030211	60.64350453	0
31.58610272	60.64350453	0
39.27190332	60.64350453	0
46.95770393	60.64350453	0
54.64350453	60.64350453	0
62.32930514	60.64350453	0
VERTICES 360 720
1	0
1	1
1	2
1	3
1	4
1	5
1	6
1	7
1	8
1	9
1	10
1	11
1	12
1	13
1	14
1	15
1	16
1	17
1	18
1	19
1	20
1	21
1	22
1	23
1	24
1	25
1	26
1	27
1	28
1	29
1	30
1	31
1	32
1	33
1	34
1	35
1	36
1	37
1	38
1	39
1	40
1	41
1	42
1	43
1	44
1	45
1	46
1	47
1	48
1	49
1	50
1	51
1	52
1	53
1	54
1	55
1	56
1	57
1	58
1	59
1	60
1	61
1	62
1	63
1	64
1	65
1	66
1	67
1	68
1	69
1	70
1	71
1	72
1	73
1	74
1	75
1	76
1	77
1	78
1	79
1	80
1	81
1	82
1	83
1	84
1	85
1	86
1	87
1	88
1	89
1	90
1	91
1	92
1	93
1	94
1	95
1	96
1	97
1	98
1	99
1	100
1	101
1	102
1	103
1	104
1	105
1	106
1	107
1	108
1	109
1	110
1	111
1	112
1	113
1	114
1	115
1	116
1	117
1	118
1	119
1	120
1	121
1	122
1	123
1	124
1	125
1	126
1	127
1	128
1	129
1	130
1	131
1	132
1	133
1	134
1	135
1	136
1	137
1	138
1	139
1	140
1	141
1	142
1	143
1	144
1	145
1	146
1	147
1	148
1	149
1	150
1	151
1	152
1	153
1	154
1	155
1	156
1	157
1	158
1	159
1	160
1	161
1	162
1	163
1	164
1	165
1	166
1	167
1	168
1	169
1	170
1	171
1	172
1	173
1	174
1	175
1	176
1	177
1	178
1	179
1	180
1	181
1	182
1	183
1	184
1	185
1	186
1	187
1	188
1	189
1	190
1	191
1	192
1	193
1	194
1	195
1	196
1	197
1	198
1	199
1	200
1	201
1	202
1	203
1	204
1	205
1	206
1	207
1	208
1	209
1	210
1	211
1	212
1	213
1	214
1	215
1	216
1	217
1	218
1	219
1	220
1	221
1	222
1	223
1	224
1	225
1	226
1	227
1	228
1	229
1	230
1	231
1	232
1	233
1	234
1	235
1	236
1	237
1	238
1	239
1	240
1	241
1	242
1	243
1	244
1	245
1	246
1	247
1	248
1	249
1	250
1	251
1	252
1	253
1	254
1	255
1	256
1	257
1	258
1	259
1	260
1	261
1	262
1	263
1	264
1	265
1	266
1	267
1	268
1	269
1	270
1	271
1	272
1	273
1	274
1	275
1	276
1	277
1	278
1	279
1	280
1	281
1	282
1	283
1	284
1	285
1	286
1	287
1	288
1	289
1	290
1	291
1	292
1	293
1	294
1	295
1	296
1	297
1	298
1	299
1	300
1	301
1	302
1	303
1	304
1	305
1	306
1	307
1	308
1	309
1	310
1	311
1	312
1	313
1	314
1	315
1	316
1	317
1	318
1	319
1	320
1	321
1	322
1	323
1	324
1	325
1	326
1	327
1	328
1	329
1	330
1	331
1	332
1	333
1	334
1	335
1	336
1	337
1	338
1	339
1	340
1	341
1	342
1	343
1	344
1	345
1	346
1	347
1	348
1	349
1	350
1	351
1	352
1	353
1	354
1	355
1	356
1	357
1	358
1	359
POINT_DATA 360
SCALARS Point%20IDs int
LOOKUP_TABLE default
0
1
2
3
4
5
6
7
8
9
10
11
12
13
14
15
16
17
18
19
20
21
22
23
24
25
26
27
28
29
30
31
32
33
34
35
36
37
38
39
40
41
42
43
44
45
46
47
48
49
50
51
52
53
54
55
56
57
58
59
60
61
62
63
64
65
66
67
68
69
70
71
1000
1001
1002
1003
1004
1005
1006
1007
1008
1009
1010
1011
1012
1013
1014
1015
1016
1017
1018
1019
1020
1021
1022
1023
1024
1025
1026
1027
1028
1029
1030
1031
1032
1033
1034
1035
1036
1037
1038
1039
1040
1041
1042
1043
1044
1045
1046
1047
1048
1049
1050
1051
1052
1053
1054
1055
1056
1057
1058
1059
1060
1061
1062
1063
1064
1065
1066
1067
1068
1069
1070
1071
2000
2001
2002
2003
2004
2005
2006
2007
2008
2009
2010
2011
2012
2013
2014
2015
2016
2017
2018
2019
2020
2021
2022
2023
2024
2025
2026
2027
2028
2029
2030
2031
2032
2033
2034
2035
2036
2037
2038
2039
2040
2041
2042
2043
2044
2045
2046
2047
2048
2049
2050
2051
2052
2053
2054
2055
2056
2057
2058
2059
2060
2061
2062
2063
2064
2065
2066
2067
2068
2069
2070
2071
3000
3001
3002
3003
3004
3005
3006
3007
3008
3009
3010
3011
3012
3013
3014
3015
3016
3017
3018
3019
3020
3021
3022
3023
3024
3025
3026
3027
3028
3029
3030
3031
3032
3033
3034
3035
3036
3037
3038
3039
3040
3041
3042
3043
3044
3045
3046
3047
3048
3049
3050
3051
3052
3053
3054
3055
3056
3057
3058
3059
3060
3061
3062
3063
3064
3065
3066
3067
3068
3069
3070
3071
4000
4001
4002
4003
4004
4005
4006
4007
4008
4009
4010
4011
4012
4013
4014
4015
4016
4017
4018
4019
4020
4021
4022
4023
4024
4025
4026
4027
4028
4029
4030
4031
4032
4033
4034
4035
4036
4037
4038
4039
4040
4041
4042
4043
4044
4045
4046
4047
4048
4049
4050
4051
4052
4053
4054
4055
4056
4057
4058
4059
4060
4061
4062
4063
4064
4065
4066
4067
4068
4069
4070
4071
NORMALS Normals double
0	0	-1
0	0	-1
0	0	-1
0	0	-1
0	0	-1
0	0	-1
0	0	-1
0	0	-1
0	0	-1
0	0	-1
0	0	-1
0	0	-1
0	0	-1
0	0	-1
0	0	-1
0	0	-1
0	0	-1
0	0	-1
0	0	-1
0	0	-1
0	0	-1
0	0	-1
0	0	-1
0	0	-1
0	0	-1
0	0	-1
0	0	-1
0	0	-1
0	0	-1
0	0	-1
0	0	-1
0	0	-1
0	0	-1
0	0	-1
0	0	-1
0	0	-1
0	0	-1
0	0	-1
0	0	-1
0	0	-1
0	0	-1
0	0	-1
0	0	-1
0	0	-1
0	0	-1
0	0	-1
0	0	-1
0	0	-1
0	0	-1
0	0	-1
0	0	-1
0	0	-1
0	0	-1
0	0	-1
0	0	-1
0	0	-1
0	0	-1
0	0	-1
0	0	-1
0	0	-1
0	0	-1
0	0	-1
0	0	-1
0	0	-1
0	0	-1
0	0	-1
0	0	-1
0	0	-1
0	0	-1
0	0	-1
0	0	-1
0	0	-1
0	0	-1
0	0	-1
0	0	-1
0	0	-1
0	0	-1
0	0	-1
0	0	-1
0	0	-1
0	0	-1
0	0	-1
0	0	-1
0	0	-1
0	0	-1
0	0	-1
0	0	-1
0	0	-1
0	0	-1
0	0	-1
0	0	-1
0	0	-1
0	0	-1
0	0	-1
0	0	-1
0	0	-1
0	0	-1
0	0	-1
0	0	-1
0	0	-1
0	0	-1
0	0	-1
0	0	-1
0	0	-1
0	0	-1
0	0	-1
0	0	-1
0	0	-1
0	0	-1
0	0	-1
0	0	-1
0	0	-1
0	0	-1
0	0	-1
0	0	-1
0	0	-1
0	0	-1
0	0	-1
0	0	-1
0	0	-1
0	0	-1
0	0	-1
0	0	-1
0	0	-1
0	0	-1
0	0	-1
0	0	-1
0	0	-1
0	0	-1
0	0	-1
0	0	-1
0	0	-1
0	0	-1
0	0	-1
0	0	-1
0	0	-1
0	0	-1
0	0	-1
0	0	-1
0	0	-1
0	0	-1
0	0	-1
0	0	-1
0	0	-1
0	0	-1
0	0	-1
0	0	-1
0	0	-1
0	0	-1
0	0	-1
0	0	-1
0	0	-1
0	0	-1
0	0	-1
0	0	-1
0	0	-1
0	0	-1
0	0	-1
0	0	-1
0	0	-1
0	0	-1
0	0	-1
0	0	-1
0	0	-1
0	0	-1
0	0	-1
0	0	-1
0	0	-1
0	0	-1
0	0	-1
0	0	-1
0	0	-1
0	0	-1
0	0	-1
0	0	-1
0	0	-1
0	0	-1
0	0	-1
0	0	-1
0	0	-1
0	0	-1
0	0	-1
0	0	-1
0	0	-1
0	0	-1
0	0	-1
0	0	-1
0	0	-1
0	0	-1
0	0	-1
0	0	-1
0	0	-1
0	0	-1
0	0	-1
0	0	-1
0	0	-1
0	0	-1
0	0	-1
0	0	-1
0	0	-1
0	0	-1
0	0	-1
0	0	-1
0	0	-1
0	0	-1
0	0	-1
0	0	-1
0	0	-1
0	0	-1
0	0	-1
0	0	-1
0	0	-1
0	0	-1
0	0	-1
0	0	-1
0	0	-1
0	0	-1
0	0	-1
0	0	-1
0	0	-1
0	0	-1
0	0	-1
0	0	-1
0	0	-1
0	0	-1
0	0	-1
0	0	-1
0	0	-1
0	0	-1
0	0	-1
0	0	-1
0	0	-1
0	0	-1
0	0	-1
0	0	-1
0	0	-1
0	0	-1
0	0	-1
0	0	-1
0	0	-1
0	0	-1
0	0	-1
0	0	-1
0	0	-1
0	0	-1
0	0	-1
0	0	-1
0	0	-1
0	0	-1
0	0	-1
0	0	-1
0	0	-1
0	0	-1
0	0	-1
0	0	-1
0	0	-1
0	0	-1
0	0	-1
0	0	-1
0	0	-1
0	0	-1
0	0	-1
0	0	-1
0	0	-1
0	0	-1
0	0	-1
0	0	-1
0	0	-1
0	0	-1
0	0	-1
0	0	-1
0	0	-1
0	0	-1
0	0	-1
0	0	-1
0	0	-1
0	0	-1
0	0	-1
0	0	-1
0	0	-1
0	0	-1
0	0	-1
0	0	-1
0	0	-1
0	0	-1
0	0	-1
0	0	-1
0	0	-1
0	0	-1
0	0	-1
0	0	-1
0	0	-1
0	0	-1
0	0	-1
0	0	-1
0	0	-1
0	0	-1
0	0	-1
0	0	-1
0	0	-1
0	0	-1
0	0	-1
0	0	-1
0	0	-1
0	0	-1
0	0	-1
0	0	-1
0	0	-1
0	0	-1
0	0	-1
0	0	-1
0	0	-1
0	0	-1
0	0	-1
0	0	-1
0	0	-1
0	0	-1
0	0	-1
0	0	-1
0	0	-1
0	0	-1
0	0	-1
0	0	-1
0	0	-1
0	0	-1
0	0	-1
0	0	-1
0	0	-1
0	0	-1
0	0	-1
0	0	-1
0	0	-1
0	0	-1
0	0	-1
0	0	-1
0	0	-1
0	0	-1
0	0	-1
0	0	-1
0	0	-1
0	0	-1
0	0	-1
0	0	-1
0	0	-1
0	0	-1
0	0	-1
0	0	-1
0	0	-1
0	0	-1
0	0	-1
0	0	-1
0	0	-1
0	0	-1
0	0	-1
0	0	-1
0	0	-1
0	0	-1
0	0	-1
0	0	-1
0	0	-1
