# vtk DataFile Version 3.0
vtk output
ASCII
DATASET POLYDATA
POINTS 70 double
0	0	0
3.9	0	0
7.8	0	0
11.7	0	0
15.6	0	0
19.5	0	0
23.4	0	0
27.3	0	0
31.2	0	0
35.1	0	0
0	3.9	0
3.9	3.9	0
7.8	3.9	0
11.7	3.9	0
15.6	3.9	0
19.5	3.9	0
23.4	3.9	0
27.3	3.9	0
31.2	3.9	0
35.1	3.9	0
0	7.8	0
3.9	7.8	0
7.8	7.8	0
11.7	7.8	0
15.6	7.8	0
19.5	7.8	0
23.4	7.8	0
27.3	7.8	0
31.2	7.8	0
35.1	7.8	0
0	11.7	0
3.9	11.7	0
7.8	11.7	0
11.7	11.7	0
15.6	11.7	0
19.5	11.7	0
23.4	11.7	0
27.3	11.7	0
31.2	11.7	0
35.1	11.7	0
0	15.6	0
3.9	15.6	0
7.8	15.6	0
11.7	15.6	0
15.6	15.6	0
19.5	15.6	0
23.4	15.6	0
27.3	15.6	0
31.2	15.6	0
35.1	15.6	0
0	19.5	0
3.9	19.5	0
7.8	19.5	0
11.7	19.5	0
15.6	19.5	0
19.5	19.5	0
23.4	19.5	0
27.3	19.5	0
31.2	19.5	0
35.1	19.5	0
0	23.4	0
3.9	23.4	0
7.8	23.4	0
11.7	23.4	0
15.6	23.4	0
19.5	23.4	0
23.4	23.4	0
27.3	23.4	0
31.2	23.4	0
35.1	23.4	0
VERTICES 70 140
1	0
1	1
1	2
1	3
1	4
1	5
1	6
1	7
1	8
1	9
1	10
1	11
1	12
1	13
1	14
1	15
1	16
1	17
1	18
1	19
1	20
1	21
1	22
1	23
1	24
1	25
1	26
1	27
1	28
1	29
1	30
1	31
1	32
1	33
1	34
1	35
1	36
1	37
1	38
1	39
1	40
1	41
1	42
1	43
1	44
1	45
1	46
1	47
1	48
1	49
1	50
1	51
1	52
1	53
1	54
1	55
1	56
1	57
1	58
1	59
1	60
1	61
1	62
1	63
1	64
1	65
1	66
1	67
1	68
1	69
POINT_DATA 70
SCALARS Point%20IDs int
LOOKUP_TABLE default
0
1
2
3
4
5
6
7
8
9
10
11
12
13
14
15
16
17
18
19
20
21
22
23
24
25
26
27
28
29
30
31
32
33
34
35
36
37
38
39
40
41
42
43
44
45
46
47
48
49
50
51
52
53
54
55
56
57
58
59
60
61
62
63
64
65
66
67
68
69
NORMALS Normals double
0	0	-1
0	0	-1
0	0	-1
0	0	-1
0	0	-1
0	0	-1
0	0	-1
0	0	-1
0	0	-1
0	0	-1
0	0	-1
0	0	-1
0	0	-1
0	0	-1
0	0	-1
0	0	-1
0	0	-1
0	0	-1
0	0	-1
0	0	-1
0	0	-1
0	0	-1
0	0	-1
0	0	-1
0	0	-1
0	0	-1
0	0	-1
0	0	-1
0	0	-1
0	0	-1
0	0	-1
0	0	-1
0	0	-1
0	0	-1
0	0	-1
0	0	-1
0	0	-1
0	0	-1
0	0	-1
0	0	-1
0	0	-1
0	0	-1
0	0	-1
0	0	-1
0	0	-1
0	0	-1
0	0	-1
0	0	-1
0	0	-1
0	0	-1
0	0	-1
0	0	-1
0	0	-1
0	0	-1
0	0	-1
0	0	-1
0	0	-1
0	0	-1
0	0	-1
0	0	-1
0	0	-1
0	0	-1
0	0	-1
0	0	-1
0	0	-1
0	0	-1
0	0	-1
0	0	-1
0	0	-1
0	0	-1
